<?xml version="1.0"?>
<VTKFile type="UnstructuredGrid" version="0.1" byte_order="LittleEndian">
	<UnstructuredGrid>
		<Piece NumberOfPoints="121" NumberOfCells="200">
			<Points>
				<DataArray type="Float32" NumberOfComponents="3" format="ascii">
					0 0 0
1 0 0
0 1 0
1 1 0
0.1 0 0
0.2 0 0
0.3 0 0
0.4 0 0
0.5 0 0
0.6 0 0
0.7 0 0
0.8 0 0
0.9 0 0
0.1 1 0
0.2 1 0
0.3 1 0
0.4 1 0
0.5 1 0
0.6 1 0
0.7 1 0
0.8 1 0
0.9 1 0
0 0.1 0
0 0.2 0
0 0.3 0
0 0.4 0
0 0.5 0
0 0.6 0
0 0.7 0
0 0.8 0
0 0.9 0
1 0.1 0
1 0.2 0
1 0.3 0
1 0.4 0
1 0.5 0
1 0.6 0
1 0.7 0
1 0.8 0
1 0.9 0
0.1 0.1 0
0.1 0.2 0
0.1 0.3 0
0.1 0.4 0
0.1 0.5 0
0.1 0.6 0
0.1 0.7 0
0.1 0.8 0
0.1 0.9 0
0.2 0.1 0
0.2 0.2 0
0.2 0.3 0
0.2 0.4 0
0.2 0.5 0
0.2 0.6 0
0.2 0.7 0
0.2 0.8 0
0.2 0.9 0
0.3 0.1 0
0.3 0.2 0
0.3 0.3 0
0.3 0.4 0
0.3 0.5 0
0.3 0.6 0
0.3 0.7 0
0.3 0.8 0
0.3 0.9 0
0.4 0.1 0
0.4 0.2 0
0.4 0.3 0
0.4 0.4 0
0.4 0.5 0
0.4 0.6 0
0.4 0.7 0
0.4 0.8 0
0.4 0.9 0
0.5 0.1 0
0.5 0.2 0
0.5 0.3 0
0.5 0.4 0
0.5 0.5 0
0.5 0.6 0
0.5 0.7 0
0.5 0.8 0
0.5 0.9 0
0.6 0.1 0
0.6 0.2 0
0.6 0.3 0
0.6 0.4 0
0.6 0.5 0
0.6 0.6 0
0.6 0.7 0
0.6 0.8 0
0.6 0.9 0
0.7 0.1 0
0.7 0.2 0
0.7 0.3 0
0.7 0.4 0
0.7 0.5 0
0.7 0.6 0
0.7 0.7 0
0.7 0.8 0
0.7 0.9 0
0.8 0.1 0
0.8 0.2 0
0.8 0.3 0
0.8 0.4 0
0.8 0.5 0
0.8 0.6 0
0.8 0.7 0
0.8 0.8 0
0.8 0.9 0
0.9 0.1 0
0.9 0.2 0
0.9 0.3 0
0.9 0.4 0
0.9 0.5 0
0.9 0.6 0
0.9 0.7 0
0.9 0.8 0
0.9 0.9 0

				</DataArray>
			</Points>
			<Cells>
				<DataArray type="Int32" Name="connectivity" format="ascii">
0 4 40
0 40 22
22 40 41
22 41 23
23 41 42
23 42 24
24 42 43
24 43 25
25 43 44
25 44 26
26 44 45
26 45 27
27 45 46
27 46 28
28 46 47
28 47 29
29 47 48
29 48 30
30 48 13
30 13 2
4 5 49
4 49 40
40 49 50
40 50 41
41 50 51
41 51 42
42 51 52
42 52 43
43 52 53
43 53 44
44 53 54
44 54 45
45 54 55
45 55 46
46 55 56
46 56 47
47 56 57
47 57 48
48 57 14
48 14 13
5 6 58
5 58 49
49 58 59
49 59 50
50 59 60
50 60 51
51 60 61
51 61 52
52 61 62
52 62 53
53 62 63
53 63 54
54 63 64
54 64 55
55 64 65
55 65 56
56 65 66
56 66 57
57 66 15
57 15 14
6 7 67
6 67 58
58 67 68
58 68 59
59 68 69
59 69 60
60 69 70
60 70 61
61 70 71
61 71 62
62 71 72
62 72 63
63 72 73
63 73 64
64 73 74
64 74 65
65 74 75
65 75 66
66 75 16
66 16 15
7 8 76
7 76 67
67 76 77
67 77 68
68 77 78
68 78 69
69 78 79
69 79 70
70 79 80
70 80 71
71 80 81
71 81 72
72 81 82
72 82 73
73 82 83
73 83 74
74 83 84
74 84 75
75 84 17
75 17 16
8 9 85
8 85 76
76 85 86
76 86 77
77 86 87
77 87 78
78 87 88
78 88 79
79 88 89
79 89 80
80 89 90
80 90 81
81 90 91
81 91 82
82 91 92
82 92 83
83 92 93
83 93 84
84 93 18
84 18 17
9 10 94
9 94 85
85 94 95
85 95 86
86 95 96
86 96 87
87 96 97
87 97 88
88 97 98
88 98 89
89 98 99
89 99 90
90 99 100
90 100 91
91 100 101
91 101 92
92 101 102
92 102 93
93 102 19
93 19 18
10 11 103
10 103 94
94 103 104
94 104 95
95 104 105
95 105 96
96 105 106
96 106 97
97 106 107
97 107 98
98 107 108
98 108 99
99 108 109
99 109 100
100 109 110
100 110 101
101 110 111
101 111 102
102 111 20
102 20 19
11 12 112
11 112 103
103 112 113
103 113 104
104 113 114
104 114 105
105 114 115
105 115 106
106 115 116
106 116 107
107 116 117
107 117 108
108 117 118
108 118 109
109 118 119
109 119 110
110 119 120
110 120 111
111 120 21
111 21 20
12 1 31
12 31 112
112 31 32
112 32 113
113 32 33
113 33 114
114 33 34
114 34 115
115 34 35
115 35 116
116 35 36
116 36 117
117 36 37
117 37 118
118 37 38
118 38 119
119 38 39
119 39 120
120 39 3
120 3 21

				</DataArray>
				<DataArray type="Int32" Name="offsets" format="ascii">
3
6
9
12
15
18
21
24
27
30
33
36
39
42
45
48
51
54
57
60
63
66
69
72
75
78
81
84
87
90
93
96
99
102
105
108
111
114
117
120
123
126
129
132
135
138
141
144
147
150
153
156
159
162
165
168
171
174
177
180
183
186
189
192
195
198
201
204
207
210
213
216
219
222
225
228
231
234
237
240
243
246
249
252
255
258
261
264
267
270
273
276
279
282
285
288
291
294
297
300
303
306
309
312
315
318
321
324
327
330
333
336
339
342
345
348
351
354
357
360
363
366
369
372
375
378
381
384
387
390
393
396
399
402
405
408
411
414
417
420
423
426
429
432
435
438
441
444
447
450
453
456
459
462
465
468
471
474
477
480
483
486
489
492
495
498
501
504
507
510
513
516
519
522
525
528
531
534
537
540
543
546
549
552
555
558
561
564
567
570
573
576
579
582
585
588
591
594
597
600

				</DataArray>
				<DataArray type="UInt8" Name="types" format="ascii">
5
5
5
5
5
5
5
5
5
5
5
5
5
5
5
5
5
5
5
5
5
5
5
5
5
5
5
5
5
5
5
5
5
5
5
5
5
5
5
5
5
5
5
5
5
5
5
5
5
5
5
5
5
5
5
5
5
5
5
5
5
5
5
5
5
5
5
5
5
5
5
5
5
5
5
5
5
5
5
5
5
5
5
5
5
5
5
5
5
5
5
5
5
5
5
5
5
5
5
5
5
5
5
5
5
5
5
5
5
5
5
5
5
5
5
5
5
5
5
5
5
5
5
5
5
5
5
5
5
5
5
5
5
5
5
5
5
5
5
5
5
5
5
5
5
5
5
5
5
5
5
5
5
5
5
5
5
5
5
5
5
5
5
5
5
5
5
5
5
5
5
5
5
5
5
5
5
5
5
5
5
5
5
5
5
5
5
5
5
5
5
5
5
5
5
5
5
5
5
5

				</DataArray>
			</Cells>
			<PointData>
<DataArray type="Float32" Name="u" NumberOfComponents="1" format="ascii">
0
-0.958924
-0.958924
0.708861
0.479426
0.841471
0.997495
0.909297
0.598472
0.14112
-0.350783
-0.756802
-0.97753
-0.951553
-0.926185
-0.873834
-0.782095
-0.63886
-0.436976
-0.178939
0.119652
0.429218
0.479426
0.841471
0.997495
0.909297
0.598472
0.14112
-0.350783
-0.756802
-0.97753
-0.951553
-0.926185
-0.873834
-0.782095
-0.63886
-0.436976
-0.178939
0.119652
0.429218
0.856683
1.39351
1.6534
1.50731
0.986643
0.231242
-0.552485
-1.13868
-1.32539
1.39351
1.84149
1.96042
1.64695
0.946883
0.0292938
-0.859722
-1.45465
-1.52697
1.6534
1.96042
1.87428
1.37607
0.548162
-0.422834
-1.28347
-1.77079
-1.67229
1.50731
1.64695
1.37607
0.745707
-0.12632
-1.04572
-1.7718
-2.06916
-1.763
0.986643
0.946883
0.548162
-0.12632
-0.942321
-1.71233
-2.22342
-2.28252
-1.7632
0.231242
0.0292938
-0.422834
-1.04572
-1.71233
-2.25798
-2.50926
-2.32357
-1.62694
-0.552485
-0.859722
-1.28347
-1.7718
-2.22342
-2.50926
-2.5027
-2.11383
-1.31951
-1.13868
-1.45465
-1.77079
-2.06916
-2.28252
-2.32357
-2.11383
-1.61168
-0.836004
-1.32539
-1.52697
-1.67229
-1.763
-1.7632
-1.62694
-1.31951
-0.836004
-0.217631

</DataArray>
			</PointData>
			<CellData>
			</CellData>
		</Piece>
	</UnstructuredGrid>
</VTKFile>

